 Gaussian 09, Revision C.01,
 Gaussian 09:  EM64L-G09RevC.01 23-Sep-2011

 ----------------------------------------------------------------------
 #P opt=gdiis PW91PW91/6-311++G** geom=connectivity guess=mix # scf=(fe
 rmi,conver=7,maxcycle=400) output=wfx
 ----------------------------------------------------------------------

 (Enter /apps/rhel5/g09-C.01/g09/l101.exe)
 -------------------
 Title Card Required
 -------------------
 Charge =  0 Multiplicity = 3

 SCF Done:  E(UPW91-PW91) =  -225.404484623     A.U. after   67 cycles
 SCF Done:  E(UPW91-PW91) =  -225.416371643     A.U. after   17 cycles
 SCF Done:  E(UPW91-PW91) =  -225.416544538     A.U. after   10 cycles
 SCF Done:  E(UPW91-PW91) =  -225.416563518     A.U. after    7 cycles
 Optimization completed.
    -- Stationary point found.

                         Standard orientation:
 ---------------------------------------------------------------------
 Center     Atomic      Atomic             Coordinates (Angstroms)
 Number     Number       Type             X           Y           Z
 ---------------------------------------------------------------------
      1          8           0        0.000000    0.000000    0.582650
      2          8           0        0.000000    1.029479   -0.291325
      3          8           0        0.000000   -1.029479   -0.291325
 ---------------------------------------------------------------------

 The electronic state is 3-A2.
 Alpha  occ. eigenvalues --  -18.99688 -18.90649 -18.90647  -1.22933  -0.98091
 Alpha  occ. eigenvalues --   -0.76635  -0.54121  -0.53238  -0.52050  -0.36406
 Alpha  occ. eigenvalues --   -0.34843  -0.33670  -0.26787
 Alpha virt. eigenvalues --   -0.05428  -0.04067   0.05228   0.09589   0.10137
 Alpha virt. eigenvalues --    0.10478   0.15978   0.16669   0.16899   0.18613
 Alpha virt. eigenvalues --    0.19543   0.25198   0.28879   0.32658   0.83949

  Beta  occ. eigenvalues --  -18.98592 -18.88566 -18.88564  -1.20152  -0.94072
  Beta  occ. eigenvalues --   -0.72551  -0.51838  -0.50095  -0.47553  -0.31816
  Beta  occ. eigenvalues --   -0.29956
  Beta virt. eigenvalues --   -0.26042  -0.21334  -0.02656  -0.02064   0.06019
  Beta virt. eigenvalues --    0.10964   0.11001   0.11084   0.16572   0.17831
  Beta virt. eigenvalues --    0.17920   0.19391   0.19948   0.25911   0.29568

 Mulliken atomic charges:
              1
     1  O    0.196262
     2  O   -0.098131
     3  O   -0.098131
 Sum of Mulliken atomic charges =   0.00000

 Dipole moment (field-independent basis, Debye):
    X=              0.0000    Y=              0.0000    Z=              0.7462  Tot=              0.7462
 Quadrupole moment (field-independent basis, Debye-Ang):
   XX=            -15.8446   YY=            -16.1487   ZZ=            -15.8741
   XY=              0.0000   XZ=              0.0000   YZ=              0.0000

 Normal termination of Gaussian 09 at Sat Oct  6 02:10:23 2012.
