 Gaussian 09, Revision C.01,
 Gaussian 09:  EM64L-G09RevC.01 23-Sep-2011

 ----------------------------------------------------------------------
 #P opt=gdiis PW91PW91/6-311++G** geom=connectivity guess=mix # scf=(fe
 rmi,conver=7,maxcycle=400) output=wfx
 ----------------------------------------------------------------------

 (Enter /apps/rhel5/g09-C.01/g09/l101.exe)
 -------------------
 Title Card Required
 -------------------
 Charge =  0 Multiplicity = 1

 SCF Done:  E(RPW91-PW91) =  -225.444985908     A.U. after   16 cycles
 SCF Done:  E(RPW91-PW91) =  -225.450103284     A.U. after   11 cycles
 SCF Done:  E(RPW91-PW91) =  -225.451931253     A.U. after   11 cycles
 SCF Done:  E(RPW91-PW91) =  -225.451974931     A.U. after    7 cycles
 Optimization completed.
    -- Stationary point found.

                         Standard orientation:
 ---------------------------------------------------------------------
 Center     Atomic      Atomic             Coordinates (Angstroms)
 Number     Number       Type             X           Y           Z
 ---------------------------------------------------------------------
      1          8           0        0.000000    0.000000    0.435357
      2          8           0        0.000000    1.096192   -0.217678
      3          8           0        0.000000   -1.096192   -0.217678
 ---------------------------------------------------------------------

 The electronic state is 1-A1.
 Alpha  occ. eigenvalues --  -19.05446 -18.88343 -18.88341  -1.27453  -1.02346
 Alpha  occ. eigenvalues --   -0.71918  -0.55559  -0.54910  -0.53819  -0.34380
 Alpha  occ. eigenvalues --   -0.30620  -0.29776
 Alpha virt. eigenvalues --   -0.23544  -0.01251   0.05026   0.05594   0.09728
 Alpha virt. eigenvalues --    0.10424   0.12451   0.16972   0.17029   0.17062
 Alpha virt. eigenvalues --    0.19674   0.19798   0.25152   0.28999   0.33233

 Mulliken atomic charges:
              1
     1  O    0.211903
     2  O   -0.105952
     3  O   -0.105952
 Sum of Mulliken atomic charges =   0.00000

 Dipole moment (field-independent basis, Debye):
    X=              0.0000    Y=              0.0000    Z=              0.6419  Tot=              0.6419
 Quadrupole moment (field-independent basis, Debye-Ang):
   XX=            -14.7321   YY=            -17.6411   ZZ=            -16.4003
   XY=              0.0000   XZ=              0.0000   YZ=              0.0000

 Normal termination of Gaussian 09 at Sat Oct  6 02:09:49 2012.
