 Gaussian 09, Revision C.01,
 Gaussian 09:  EM64L-G09RevC.01 23-Sep-2011

 ----------------------------------------------------------------------
 # opt CCSD(full,SaveAmplitudes)/aug-cc-pVTZ geom=connectivity scf=(fer
 mi,maxcycle=400) # density=current output=wfx
 ----------------------------------------------------------------------

 99/6=1200/99;
 -------------------
 Title Card Required
 -------------------
 Charge =  0 Multiplicity = 3

 SCF Done:  E(UHF) =  -224.348068677     A.U. after   18 cycles
 E2 =    -0.7537696854D+00 EUMP2 =    -0.22510183836239D+03
 SCF Done:  E(UHF) =  -224.351556642     A.U. after   15 cycles
 E2 =    -0.7540647838D+00 EUMP2 =    -0.22510562142557D+03
 SCF Done:  E(UHF) =  -224.352397634     A.U. after   15 cycles
 E2 =    -0.7538080728D+00 EUMP2 =    -0.22510620570668D+03
 SCF Done:  E(UHF) =  -224.352176624     A.U. after   13 cycles
 E2 =    -0.7538895369D+00 EUMP2 =    -0.22510606616135D+03
 Optimization completed.
    -- Stationary point found.

                         Standard orientation:
 ---------------------------------------------------------------------
 Center     Atomic      Atomic             Coordinates (Angstroms)
 Number     Number       Type             X           Y           Z
 ---------------------------------------------------------------------
      1          8           0        0.000000    0.000000    0.579101
      2          8           0        0.000000    0.990774   -0.289550
      3          8           0        0.000000   -0.990774   -0.289550
 ---------------------------------------------------------------------

 Mulliken atomic charges:
              1
     1  O    0.177633
     2  O   -0.088817
     3  O   -0.088817
 Sum of Mulliken atomic charges =   0.00000

 Dipole moment (field-independent basis, Debye):
    X=              0.0000    Y=              0.0000    Z=              0.8208  Tot=              0.8208
 Quadrupole moment (field-independent basis, Debye-Ang):
   XX=            -15.7923   YY=            -15.8481   ZZ=            -15.5999
   XY=              0.0000   XZ=              0.0000   YZ=              0.0000

 Normal termination of Gaussian 09 at Sat Oct  6 10:24:04 2012.
