 Gaussian 09, Revision C.01,
 Gaussian 09:  EM64L-G09RevC.01 23-Sep-2011

 ----------------------------------------------------------------------
 #P opt PW91PW91/6-311++G** geom=connectivity guess=mix # scf=(fermi,ma
 xcycle=400) output=wfx
 ----------------------------------------------------------------------

 (Enter /apps/rhel5/g09-C.01/g09/l101.exe)
 -------------------
 Title Card Required
 -------------------
 Charge =  1 Multiplicity = 2

 SCF Done:  E(UPW91-PW91) =  -224.997149751     A.U. after   18 cycles
 SCF Done:  E(UPW91-PW91) =  -224.998078682     A.U. after   12 cycles
 SCF Done:  E(UPW91-PW91) =  -224.998240228     A.U. after   10 cycles
 SCF Done:  E(UPW91-PW91) =  -224.998240836     A.U. after    8 cycles
 Optimization completed.
    -- Stationary point found.

                         Standard orientation:
 ---------------------------------------------------------------------
 Center     Atomic      Atomic             Coordinates (Angstroms)
 Number     Number       Type             X           Y           Z
 ---------------------------------------------------------------------
      1          8           0        0.000000    0.000000    0.319088
      2          8           0        0.000000    1.135186   -0.159544
      3          8           0        0.000000   -1.135186   -0.159544
 ---------------------------------------------------------------------

 The electronic state is 2-A1.
 Alpha  occ. eigenvalues --  -19.44560 -19.30422 -19.30421  -1.68294  -1.46064
 Alpha  occ. eigenvalues --   -1.07488  -0.93547  -0.92940  -0.92835  -0.71803
 Alpha  occ. eigenvalues --   -0.71137  -0.66268
 Alpha virt. eigenvalues --   -0.58452  -0.37891  -0.19937  -0.18883  -0.11732
 Alpha virt. eigenvalues --   -0.11597  -0.09280  -0.04175  -0.02863  -0.02263
 Alpha virt. eigenvalues --    0.00778   0.02370   0.05082   0.12027   0.15407

  Beta  occ. eigenvalues --  -19.43993 -19.29323 -19.29322  -1.67016  -1.44054
  Beta  occ. eigenvalues --   -1.04920  -0.92811  -0.90876  -0.90368  -0.70688
  Beta  occ. eigenvalues --   -0.67541
  Beta virt. eigenvalues --   -0.60836  -0.57342  -0.36520  -0.18204  -0.17985
  Beta virt. eigenvalues --   -0.11276  -0.10466  -0.08925  -0.03871  -0.01999
  Beta virt. eigenvalues --   -0.01770   0.01470   0.02774   0.05427   0.12398

 Mulliken atomic charges:
              1
     1  O    0.368204
     2  O    0.315898
     3  O    0.315898
 Sum of Mulliken atomic charges =   1.00000

 Dipole moment (field-independent basis, Debye):
    X=              0.0000    Y=              0.0000    Z=             -0.0357  Tot=              0.0357
 Quadrupole moment (field-independent basis, Debye-Ang):
   XX=            -12.7942   YY=             -9.7680   ZZ=            -13.0884
   XY=              0.0000   XZ=              0.0000   YZ=              0.0000

 Normal termination of Gaussian 09 at Sat Oct  6 02:13:14 2012.
